LAMMPS data file for RNA LLPS: (CAG)_40

7680 atoms
7616 bonds
7552 angles

4 atom types
1 bond types
1 angle types

0.000000    809.000000  xlo xhi
0.000000    809.000000  ylo yhi
0.000000    809.000000  zlo zhi

Masses

1 329.20
2 305.20
3 345.20
4 306.20

Atoms

1 1 2 0 25.0000 25.9000 50.0000
2 1 1 0 25.0000 31.8000 50.0000
3 1 3 0 25.0000 37.7000 50.0000
4 1 2 0 25.0000 43.6000 50.0000
5 1 1 0 25.0000 49.5000 50.0000
6 1 3 0 25.0000 55.4000 50.0000
7 1 2 0 25.0000 61.3000 50.0000
8 1 1 0 25.0000 67.2000 50.0000
9 1 3 0 25.0000 73.1000 50.0000
10 1 2 0 25.0000 79.0000 50.0000
11 1 1 0 25.0000 84.9000 50.0000
12 1 3 0 25.0000 90.8000 50.0000
13 1 2 0 25.0000 96.7000 50.0000
14 1 1 0 25.0000 102.6000 50.0000
15 1 3 0 25.0000 108.5000 50.0000
16 1 2 0 25.0000 114.4000 50.0000
17 1 1 0 25.0000 120.3000 50.0000
18 1 3 0 25.0000 126.2000 50.0000
19 1 2 0 25.0000 132.1000 50.0000
20 1 1 0 25.0000 138.0000 50.0000
21 1 3 0 25.0000 143.9000 50.0000
22 1 2 0 25.0000 149.8000 50.0000
23 1 1 0 25.0000 155.7000 50.0000
24 1 3 0 25.0000 161.6000 50.0000
25 1 2 0 25.0000 167.5000 50.0000
26 1 1 0 25.0000 173.4000 50.0000
27 1 3 0 25.0000 179.3000 50.0000
28 1 2 0 25.0000 185.2000 50.0000
29 1 1 0 25.0000 191.1000 50.0000
30 1 3 0 25.0000 197.0000 50.0000
31 1 2 0 25.0000 202.9000 50.0000
32 1 1 0 25.0000 208.8000 50.0000
33 1 3 0 25.0000 214.7000 50.0000
34 1 2 0 25.0000 220.6000 50.0000
35 1 1 0 25.0000 226.5000 50.0000
36 1 3 0 25.0000 232.4000 50.0000
37 1 2 0 25.0000 238.3000 50.0000
38 1 1 0 25.0000 244.2000 50.0000
39 1 3 0 25.0000 250.1000 50.0000
40 1 2 0 25.0000 256.0000 50.0000
41 1 1 0 25.0000 261.9000 50.0000
42 1 3 0 25.0000 267.8000 50.0000
43 1 2 0 25.0000 273.7000 50.0000
44 1 1 0 25.0000 279.6000 50.0000
45 1 3 0 25.0000 285.5000 50.0000
46 1 2 0 25.0000 291.4000 50.0000
47 1 1 0 25.0000 297.3000 50.0000
48 1 3 0 25.0000 303.2000 50.0000
49 1 2 0 25.0000 309.1000 50.0000
50 1 1 0 25.0000 315.0000 50.0000
51 1 3 0 25.0000 320.9000 50.0000
52 1 2 0 25.0000 326.8000 50.0000
53 1 1 0 25.0000 332.7000 50.0000
54 1 3 0 25.0000 338.6000 50.0000
55 1 2 0 25.0000 344.5000 50.0000
56 1 1 0 25.0000 350.4000 50.0000
57 1 3 0 25.0000 356.3000 50.0000
58 1 2 0 25.0000 362.2000 50.0000
59 1 1 0 25.0000 368.1000 50.0000
60 1 3 0 30.9000 368.1000 50.0000
61 1 2 0 36.8000 368.1000 50.0000
62 1 1 0 36.8000 362.2000 50.0000
63 1 3 0 36.8000 356.3000 50.0000
64 1 2 0 36.8000 350.4000 50.0000
65 1 1 0 36.8000 344.5000 50.0000
66 1 3 0 36.8000 338.6000 50.0000
67 1 2 0 36.8000 332.7000 50.0000
68 1 1 0 36.8000 326.8000 50.0000
69 1 3 0 36.8000 320.9000 50.0000
70 1 2 0 36.8000 315.0000 50.0000
71 1 1 0 36.8000 309.1000 50.0000
72 1 3 0 36.8000 303.2000 50.0000
73 1 2 0 36.8000 297.3000 50.0000
74 1 1 0 36.8000 291.4000 50.0000
75 1 3 0 36.8000 285.5000 50.0000
76 1 2 0 36.8000 279.6000 50.0000
77 1 1 0 36.8000 273.7000 50.0000
78 1 3 0 36.8000 267.8000 50.0000
79 1 2 0 36.8000 261.9000 50.0000
80 1 1 0 36.8000 256.0000 50.0000
81 1 3 0 36.8000 250.1000 50.0000
82 1 2 0 36.8000 244.2000 50.0000
83 1 1 0 36.8000 238.3000 50.0000
84 1 3 0 36.8000 232.4000 50.0000
85 1 2 0 36.8000 226.5000 50.0000
86 1 1 0 36.8000 220.6000 50.0000
87 1 3 0 36.8000 214.7000 50.0000
88 1 2 0 36.8000 208.8000 50.0000
89 1 1 0 36.8000 202.9000 50.0000
90 1 3 0 36.8000 197.0000 50.0000
91 1 2 0 36.8000 191.1000 50.0000
92 1 1 0 36.8000 185.2000 50.0000
93 1 3 0 36.8000 179.3000 50.0000
94 1 2 0 36.8000 173.4000 50.0000
95 1 1 0 36.8000 167.5000 50.0000
96 1 3 0 36.8000 161.6000 50.0000
97 1 2 0 36.8000 155.7000 50.0000
98 1 1 0 36.8000 149.8000 50.0000
99 1 3 0 36.8000 143.9000 50.0000
100 1 2 0 36.8000 138.0000 50.0000
101 1 1 0 36.8000 132.1000 50.0000
102 1 3 0 36.8000 126.2000 50.0000
103 1 2 0 36.8000 120.3000 50.0000
104 1 1 0 36.8000 114.4000 50.0000
105 1 3 0 36.8000 108.5000 50.0000
106 1 2 0 36.8000 102.6000 50.0000
107 1 1 0 36.8000 96.7000 50.0000
108 1 3 0 36.8000 90.8000 50.0000
109 1 2 0 36.8000 84.9000 50.0000
110 1 1 0 36.8000 79.0000 50.0000
111 1 3 0 36.8000 73.1000 50.0000
112 1 2 0 36.8000 67.2000 50.0000
113 1 1 0 36.8000 61.3000 50.0000
114 1 3 0 36.8000 55.4000 50.0000
115 1 2 0 36.8000 49.5000 50.0000
116 1 1 0 36.8000 43.6000 50.0000
117 1 3 0 36.8000 37.7000 50.0000
118 1 2 0 36.8000 31.8000 50.0000
119 1 1 0 36.8000 25.9000 50.0000
120 1 3 0 36.8000 20.0000 50.0000
121 2 2 0 126.0000 25.9000 50.0000
122 2 1 0 126.0000 31.8000 50.0000
123 2 3 0 126.0000 37.7000 50.0000
124 2 2 0 126.0000 43.6000 50.0000
125 2 1 0 126.0000 49.5000 50.0000
126 2 3 0 126.0000 55.4000 50.0000
127 2 2 0 126.0000 61.3000 50.0000
128 2 1 0 126.0000 67.2000 50.0000
129 2 3 0 126.0000 73.1000 50.0000
130 2 2 0 126.0000 79.0000 50.0000
131 2 1 0 126.0000 84.9000 50.0000
132 2 3 0 126.0000 90.8000 50.0000
133 2 2 0 126.0000 96.7000 50.0000
134 2 1 0 126.0000 102.6000 50.0000
135 2 3 0 126.0000 108.5000 50.0000
136 2 2 0 126.0000 114.4000 50.0000
137 2 1 0 126.0000 120.3000 50.0000
138 2 3 0 126.0000 126.2000 50.0000
139 2 2 0 126.0000 132.1000 50.0000
140 2 1 0 126.0000 138.0000 50.0000
141 2 3 0 126.0000 143.9000 50.0000
142 2 2 0 126.0000 149.8000 50.0000
143 2 1 0 126.0000 155.7000 50.0000
144 2 3 0 126.0000 161.6000 50.0000
145 2 2 0 126.0000 167.5000 50.0000
146 2 1 0 126.0000 173.4000 50.0000
147 2 3 0 126.0000 179.3000 50.0000
148 2 2 0 126.0000 185.2000 50.0000
149 2 1 0 126.0000 191.1000 50.0000
150 2 3 0 126.0000 197.0000 50.0000
151 2 2 0 126.0000 202.9000 50.0000
152 2 1 0 126.0000 208.8000 50.0000
153 2 3 0 126.0000 214.7000 50.0000
154 2 2 0 126.0000 220.6000 50.0000
155 2 1 0 126.0000 226.5000 50.0000
156 2 3 0 126.0000 232.4000 50.0000
157 2 2 0 126.0000 238.3000 50.0000
158 2 1 0 126.0000 244.2000 50.0000
159 2 3 0 126.0000 250.1000 50.0000
160 2 2 0 126.0000 256.0000 50.0000
161 2 1 0 126.0000 261.9000 50.0000
162 2 3 0 126.0000 267.8000 50.0000
163 2 2 0 126.0000 273.7000 50.0000
164 2 1 0 126.0000 279.6000 50.0000
165 2 3 0 126.0000 285.5000 50.0000
166 2 2 0 126.0000 291.4000 50.0000
167 2 1 0 126.0000 297.3000 50.0000
168 2 3 0 126.0000 303.2000 50.0000
169 2 2 0 126.0000 309.1000 50.0000
170 2 1 0 126.0000 315.0000 50.0000
171 2 3 0 126.0000 320.9000 50.0000
172 2 2 0 126.0000 326.8000 50.0000
173 2 1 0 126.0000 332.7000 50.0000
174 2 3 0 126.0000 338.6000 50.0000
175 2 2 0 126.0000 344.5000 50.0000
176 2 1 0 126.0000 350.4000 50.0000
177 2 3 0 126.0000 356.3000 50.0000
178 2 2 0 126.0000 362.2000 50.0000
179 2 1 0 126.0000 368.1000 50.0000
180 2 3 0 131.9000 368.1000 50.0000
181 2 2 0 137.8000 368.1000 50.0000
182 2 1 0 137.8000 362.2000 50.0000
183 2 3 0 137.8000 356.3000 50.0000
184 2 2 0 137.8000 350.4000 50.0000
185 2 1 0 137.8000 344.5000 50.0000
186 2 3 0 137.8000 338.6000 50.0000
187 2 2 0 137.8000 332.7000 50.0000
188 2 1 0 137.8000 326.8000 50.0000
189 2 3 0 137.8000 320.9000 50.0000
190 2 2 0 137.8000 315.0000 50.0000
191 2 1 0 137.8000 309.1000 50.0000
192 2 3 0 137.8000 303.2000 50.0000
193 2 2 0 137.8000 297.3000 50.0000
194 2 1 0 137.8000 291.4000 50.0000
195 2 3 0 137.8000 285.5000 50.0000
196 2 2 0 137.8000 279.6000 50.0000
197 2 1 0 137.8000 273.7000 50.0000
198 2 3 0 137.8000 267.8000 50.0000
199 2 2 0 137.8000 261.9000 50.0000
200 2 1 0 137.8000 256.0000 50.0000
201 2 3 0 137.8000 250.1000 50.0000
202 2 2 0 137.8000 244.2000 50.0000
203 2 1 0 137.8000 238.3000 50.0000
204 2 3 0 137.8000 232.4000 50.0000
205 2 2 0 137.8000 226.5000 50.0000
206 2 1 0 137.8000 220.6000 50.0000
207 2 3 0 137.8000 214.7000 50.0000
208 2 2 0 137.8000 208.8000 50.0000
209 2 1 0 137.8000 202.9000 50.0000
210 2 3 0 137.8000 197.0000 50.0000
211 2 2 0 137.8000 191.1000 50.0000
212 2 1 0 137.8000 185.2000 50.0000
213 2 3 0 137.8000 179.3000 50.0000
214 2 2 0 137.8000 173.4000 50.0000
215 2 1 0 137.8000 167.5000 50.0000
216 2 3 0 137.8000 161.6000 50.0000
217 2 2 0 137.8000 155.7000 50.0000
218 2 1 0 137.8000 149.8000 50.0000
219 2 3 0 137.8000 143.9000 50.0000
220 2 2 0 137.8000 138.0000 50.0000
221 2 1 0 137.8000 132.1000 50.0000
222 2 3 0 137.8000 126.2000 50.0000
223 2 2 0 137.8000 120.3000 50.0000
224 2 1 0 137.8000 114.4000 50.0000
225 2 3 0 137.8000 108.5000 50.0000
226 2 2 0 137.8000 102.6000 50.0000
227 2 1 0 137.8000 96.7000 50.0000
228 2 3 0 137.8000 90.8000 50.0000
229 2 2 0 137.8000 84.9000 50.0000
230 2 1 0 137.8000 79.0000 50.0000
231 2 3 0 137.8000 73.1000 50.0000
232 2 2 0 137.8000 67.2000 50.0000
233 2 1 0 137.8000 61.3000 50.0000
234 2 3 0 137.8000 55.4000 50.0000
235 2 2 0 137.8000 49.5000 50.0000
236 2 1 0 137.8000 43.6000 50.0000
237 2 3 0 137.8000 37.7000 50.0000
238 2 2 0 137.8000 31.8000 50.0000
239 2 1 0 137.8000 25.9000 50.0000
240 2 3 0 137.8000 20.0000 50.0000
241 3 2 0 227.0000 25.9000 50.0000
242 3 1 0 227.0000 31.8000 50.0000
243 3 3 0 227.0000 37.7000 50.0000
244 3 2 0 227.0000 43.6000 50.0000
245 3 1 0 227.0000 49.5000 50.0000
246 3 3 0 227.0000 55.4000 50.0000
247 3 2 0 227.0000 61.3000 50.0000
248 3 1 0 227.0000 67.2000 50.0000
249 3 3 0 227.0000 73.1000 50.0000
250 3 2 0 227.0000 79.0000 50.0000
251 3 1 0 227.0000 84.9000 50.0000
252 3 3 0 227.0000 90.8000 50.0000
253 3 2 0 227.0000 96.7000 50.0000
254 3 1 0 227.0000 102.6000 50.0000
255 3 3 0 227.0000 108.5000 50.0000
256 3 2 0 227.0000 114.4000 50.0000
257 3 1 0 227.0000 120.3000 50.0000
258 3 3 0 227.0000 126.2000 50.0000
259 3 2 0 227.0000 132.1000 50.0000
260 3 1 0 227.0000 138.0000 50.0000
261 3 3 0 227.0000 143.9000 50.0000
262 3 2 0 227.0000 149.8000 50.0000
263 3 1 0 227.0000 155.7000 50.0000
264 3 3 0 227.0000 161.6000 50.0000
265 3 2 0 227.0000 167.5000 50.0000
266 3 1 0 227.0000 173.4000 50.0000
267 3 3 0 227.0000 179.3000 50.0000
268 3 2 0 227.0000 185.2000 50.0000
269 3 1 0 227.0000 191.1000 50.0000
270 3 3 0 227.0000 197.0000 50.0000
271 3 2 0 227.0000 202.9000 50.0000
272 3 1 0 227.0000 208.8000 50.0000
273 3 3 0 227.0000 214.7000 50.0000
274 3 2 0 227.0000 220.6000 50.0000
275 3 1 0 227.0000 226.5000 50.0000
276 3 3 0 227.0000 232.4000 50.0000
277 3 2 0 227.0000 238.3000 50.0000
278 3 1 0 227.0000 244.2000 50.0000
279 3 3 0 227.0000 250.1000 50.0000
280 3 2 0 227.0000 256.0000 50.0000
281 3 1 0 227.0000 261.9000 50.0000
282 3 3 0 227.0000 267.8000 50.0000
283 3 2 0 227.0000 273.7000 50.0000
284 3 1 0 227.0000 279.6000 50.0000
285 3 3 0 227.0000 285.5000 50.0000
286 3 2 0 227.0000 291.4000 50.0000
287 3 1 0 227.0000 297.3000 50.0000
288 3 3 0 227.0000 303.2000 50.0000
289 3 2 0 227.0000 309.1000 50.0000
290 3 1 0 227.0000 315.0000 50.0000
291 3 3 0 227.0000 320.9000 50.0000
292 3 2 0 227.0000 326.8000 50.0000
293 3 1 0 227.0000 332.7000 50.0000
294 3 3 0 227.0000 338.6000 50.0000
295 3 2 0 227.0000 344.5000 50.0000
296 3 1 0 227.0000 350.4000 50.0000
297 3 3 0 227.0000 356.3000 50.0000
298 3 2 0 227.0000 362.2000 50.0000
299 3 1 0 227.0000 368.1000 50.0000
300 3 3 0 232.9000 368.1000 50.0000
301 3 2 0 238.8000 368.1000 50.0000
302 3 1 0 238.8000 362.2000 50.0000
303 3 3 0 238.8000 356.3000 50.0000
304 3 2 0 238.8000 350.4000 50.0000
305 3 1 0 238.8000 344.5000 50.0000
306 3 3 0 238.8000 338.6000 50.0000
307 3 2 0 238.8000 332.7000 50.0000
308 3 1 0 238.8000 326.8000 50.0000
309 3 3 0 238.8000 320.9000 50.0000
310 3 2 0 238.8000 315.0000 50.0000
311 3 1 0 238.8000 309.1000 50.0000
312 3 3 0 238.8000 303.2000 50.0000
313 3 2 0 238.8000 297.3000 50.0000
314 3 1 0 238.8000 291.4000 50.0000
315 3 3 0 238.8000 285.5000 50.0000
316 3 2 0 238.8000 279.6000 50.0000
317 3 1 0 238.8000 273.7000 50.0000
318 3 3 0 238.8000 267.8000 50.0000
319 3 2 0 238.8000 261.9000 50.0000
320 3 1 0 238.8000 256.0000 50.0000
321 3 3 0 238.8000 250.1000 50.0000
322 3 2 0 238.8000 244.2000 50.0000
323 3 1 0 238.8000 238.3000 50.0000
324 3 3 0 238.8000 232.4000 50.0000
325 3 2 0 238.8000 226.5000 50.0000
326 3 1 0 238.8000 220.6000 50.0000
327 3 3 0 238.8000 214.7000 50.0000
328 3 2 0 238.8000 208.8000 50.0000
329 3 1 0 238.8000 202.9000 50.0000
330 3 3 0 238.8000 197.0000 50.0000
331 3 2 0 238.8000 191.1000 50.0000
332 3 1 0 238.8000 185.2000 50.0000
333 3 3 0 238.8000 179.3000 50.0000
334 3 2 0 238.8000 173.4000 50.0000
335 3 1 0 238.8000 167.5000 50.0000
336 3 3 0 238.8000 161.6000 50.0000
337 3 2 0 238.8000 155.7000 50.0000
338 3 1 0 238.8000 149.8000 50.0000
339 3 3 0 238.8000 143.9000 50.0000
340 3 2 0 238.8000 138.0000 50.0000
341 3 1 0 238.8000 132.1000 50.0000
342 3 3 0 238.8000 126.2000 50.0000
343 3 2 0 238.8000 120.3000 50.0000
344 3 1 0 238.8000 114.4000 50.0000
345 3 3 0 238.8000 108.5000 50.0000
346 3 2 0 238.8000 102.6000 50.0000
347 3 1 0 238.8000 96.7000 50.0000
348 3 3 0 238.8000 90.8000 50.0000
349 3 2 0 238.8000 84.9000 50.0000
350 3 1 0 238.8000 79.0000 50.0000
351 3 3 0 238.8000 73.1000 50.0000
352 3 2 0 238.8000 67.2000 50.0000
353 3 1 0 238.8000 61.3000 50.0000
354 3 3 0 238.8000 55.4000 50.0000
355 3 2 0 238.8000 49.5000 50.0000
356 3 1 0 238.8000 43.6000 50.0000
357 3 3 0 238.8000 37.7000 50.0000
358 3 2 0 238.8000 31.8000 50.0000
359 3 1 0 238.8000 25.9000 50.0000
360 3 3 0 238.8000 20.0000 50.0000
361 4 2 0 328.0000 25.9000 50.0000
362 4 1 0 328.0000 31.8000 50.0000
363 4 3 0 328.0000 37.7000 50.0000
364 4 2 0 328.0000 43.6000 50.0000
365 4 1 0 328.0000 49.5000 50.0000
366 4 3 0 328.0000 55.4000 50.0000
367 4 2 0 328.0000 61.3000 50.0000
368 4 1 0 328.0000 67.2000 50.0000
369 4 3 0 328.0000 73.1000 50.0000
370 4 2 0 328.0000 79.0000 50.0000
371 4 1 0 328.0000 84.9000 50.0000
372 4 3 0 328.0000 90.8000 50.0000
373 4 2 0 328.0000 96.7000 50.0000
374 4 1 0 328.0000 102.6000 50.0000
375 4 3 0 328.0000 108.5000 50.0000
376 4 2 0 328.0000 114.4000 50.0000
377 4 1 0 328.0000 120.3000 50.0000
378 4 3 0 328.0000 126.2000 50.0000
379 4 2 0 328.0000 132.1000 50.0000
380 4 1 0 328.0000 138.0000 50.0000
381 4 3 0 328.0000 143.9000 50.0000
382 4 2 0 328.0000 149.8000 50.0000
383 4 1 0 328.0000 155.7000 50.0000
384 4 3 0 328.0000 161.6000 50.0000
385 4 2 0 328.0000 167.5000 50.0000
386 4 1 0 328.0000 173.4000 50.0000
387 4 3 0 328.0000 179.3000 50.0000
388 4 2 0 328.0000 185.2000 50.0000
389 4 1 0 328.0000 191.1000 50.0000
390 4 3 0 328.0000 197.0000 50.0000
391 4 2 0 328.0000 202.9000 50.0000
392 4 1 0 328.0000 208.8000 50.0000
393 4 3 0 328.0000 214.7000 50.0000
394 4 2 0 328.0000 220.6000 50.0000
395 4 1 0 328.0000 226.5000 50.0000
396 4 3 0 328.0000 232.4000 50.0000
397 4 2 0 328.0000 238.3000 50.0000
398 4 1 0 328.0000 244.2000 50.0000
399 4 3 0 328.0000 250.1000 50.0000
400 4 2 0 328.0000 256.0000 50.0000
401 4 1 0 328.0000 261.9000 50.0000
402 4 3 0 328.0000 267.8000 50.0000
403 4 2 0 328.0000 273.7000 50.0000
404 4 1 0 328.0000 279.6000 50.0000
405 4 3 0 328.0000 285.5000 50.0000
406 4 2 0 328.0000 291.4000 50.0000
407 4 1 0 328.0000 297.3000 50.0000
408 4 3 0 328.0000 303.2000 50.0000
409 4 2 0 328.0000 309.1000 50.0000
410 4 1 0 328.0000 315.0000 50.0000
411 4 3 0 328.0000 320.9000 50.0000
412 4 2 0 328.0000 326.8000 50.0000
413 4 1 0 328.0000 332.7000 50.0000
414 4 3 0 328.0000 338.6000 50.0000
415 4 2 0 328.0000 344.5000 50.0000
416 4 1 0 328.0000 350.4000 50.0000
417 4 3 0 328.0000 356.3000 50.0000
418 4 2 0 328.0000 362.2000 50.0000
419 4 1 0 328.0000 368.1000 50.0000
420 4 3 0 333.9000 368.1000 50.0000
421 4 2 0 339.8000 368.1000 50.0000
422 4 1 0 339.8000 362.2000 50.0000
423 4 3 0 339.8000 356.3000 50.0000
424 4 2 0 339.8000 350.4000 50.0000
425 4 1 0 339.8000 344.5000 50.0000
426 4 3 0 339.8000 338.6000 50.0000
427 4 2 0 339.8000 332.7000 50.0000
428 4 1 0 339.8000 326.8000 50.0000
429 4 3 0 339.8000 320.9000 50.0000
430 4 2 0 339.8000 315.0000 50.0000
431 4 1 0 339.8000 309.1000 50.0000
432 4 3 0 339.8000 303.2000 50.0000
433 4 2 0 339.8000 297.3000 50.0000
434 4 1 0 339.8000 291.4000 50.0000
435 4 3 0 339.8000 285.5000 50.0000
436 4 2 0 339.8000 279.6000 50.0000
437 4 1 0 339.8000 273.7000 50.0000
438 4 3 0 339.8000 267.8000 50.0000
439 4 2 0 339.8000 261.9000 50.0000
440 4 1 0 339.8000 256.0000 50.0000
441 4 3 0 339.8000 250.1000 50.0000
442 4 2 0 339.8000 244.2000 50.0000
443 4 1 0 339.8000 238.3000 50.0000
444 4 3 0 339.8000 232.4000 50.0000
445 4 2 0 339.8000 226.5000 50.0000
446 4 1 0 339.8000 220.6000 50.0000
447 4 3 0 339.8000 214.7000 50.0000
448 4 2 0 339.8000 208.8000 50.0000
449 4 1 0 339.8000 202.9000 50.0000
450 4 3 0 339.8000 197.0000 50.0000
451 4 2 0 339.8000 191.1000 50.0000
452 4 1 0 339.8000 185.2000 50.0000
453 4 3 0 339.8000 179.3000 50.0000
454 4 2 0 339.8000 173.4000 50.0000
455 4 1 0 339.8000 167.5000 50.0000
456 4 3 0 339.8000 161.6000 50.0000
457 4 2 0 339.8000 155.7000 50.0000
458 4 1 0 339.8000 149.8000 50.0000
459 4 3 0 339.8000 143.9000 50.0000
460 4 2 0 339.8000 138.0000 50.0000
461 4 1 0 339.8000 132.1000 50.0000
462 4 3 0 339.8000 126.2000 50.0000
463 4 2 0 339.8000 120.3000 50.0000
464 4 1 0 339.8000 114.4000 50.0000
465 4 3 0 339.8000 108.5000 50.0000
466 4 2 0 339.8000 102.6000 50.0000
467 4 1 0 339.8000 96.7000 50.0000
468 4 3 0 339.8000 90.8000 50.0000
469 4 2 0 339.8000 84.9000 50.0000
470 4 1 0 339.8000 79.0000 50.0000
471 4 3 0 339.8000 73.1000 50.0000
472 4 2 0 339.8000 67.2000 50.0000
473 4 1 0 339.8000 61.3000 50.0000
474 4 3 0 339.8000 55.4000 50.0000
475 4 2 0 339.8000 49.5000 50.0000
476 4 1 0 339.8000 43.6000 50.0000
477 4 3 0 339.8000 37.7000 50.0000
478 4 2 0 339.8000 31.8000 50.0000
479 4 1 0 339.8000 25.9000 50.0000
480 4 3 0 339.8000 20.0000 50.0000
481 5 2 0 429.0000 25.9000 50.0000
482 5 1 0 429.0000 31.8000 50.0000
483 5 3 0 429.0000 37.7000 50.0000
484 5 2 0 429.0000 43.6000 50.0000
485 5 1 0 429.0000 49.5000 50.0000
486 5 3 0 429.0000 55.4000 50.0000
487 5 2 0 429.0000 61.3000 50.0000
488 5 1 0 429.0000 67.2000 50.0000
489 5 3 0 429.0000 73.1000 50.0000
490 5 2 0 429.0000 79.0000 50.0000
491 5 1 0 429.0000 84.9000 50.0000
492 5 3 0 429.0000 90.8000 50.0000
493 5 2 0 429.0000 96.7000 50.0000
494 5 1 0 429.0000 102.6000 50.0000
495 5 3 0 429.0000 108.5000 50.0000
496 5 2 0 429.0000 114.4000 50.0000
497 5 1 0 429.0000 120.3000 50.0000
498 5 3 0 429.0000 126.2000 50.0000
499 5 2 0 429.0000 132.1000 50.0000
500 5 1 0 429.0000 138.0000 50.0000
501 5 3 0 429.0000 143.9000 50.0000
502 5 2 0 429.0000 149.8000 50.0000
503 5 1 0 429.0000 155.7000 50.0000
504 5 3 0 429.0000 161.6000 50.0000
505 5 2 0 429.0000 167.5000 50.0000
506 5 1 0 429.0000 173.4000 50.0000
507 5 3 0 429.0000 179.3000 50.0000
508 5 2 0 429.0000 185.2000 50.0000
509 5 1 0 429.0000 191.1000 50.0000
510 5 3 0 429.0000 197.0000 50.0000
511 5 2 0 429.0000 202.9000 50.0000
512 5 1 0 429.0000 208.8000 50.0000
513 5 3 0 429.0000 214.7000 50.0000
514 5 2 0 429.0000 220.6000 50.0000
515 5 1 0 429.0000 226.5000 50.0000
516 5 3 0 429.0000 232.4000 50.0000
517 5 2 0 429.0000 238.3000 50.0000
518 5 1 0 429.0000 244.2000 50.0000
519 5 3 0 429.0000 250.1000 50.0000
520 5 2 0 429.0000 256.0000 50.0000
521 5 1 0 429.0000 261.9000 50.0000
522 5 3 0 429.0000 267.8000 50.0000
523 5 2 0 429.0000 273.7000 50.0000
524 5 1 0 429.0000 279.6000 50.0000
525 5 3 0 429.0000 285.5000 50.0000
526 5 2 0 429.0000 291.4000 50.0000
527 5 1 0 429.0000 297.3000 50.0000
528 5 3 0 429.0000 303.2000 50.0000
529 5 2 0 429.0000 309.1000 50.0000
530 5 1 0 429.0000 315.0000 50.0000
531 5 3 0 429.0000 320.9000 50.0000
532 5 2 0 429.0000 326.8000 50.0000
533 5 1 0 429.0000 332.7000 50.0000
534 5 3 0 429.0000 338.6000 50.0000
535 5 2 0 429.0000 344.5000 50.0000
536 5 1 0 429.0000 350.4000 50.0000
537 5 3 0 429.0000 356.3000 50.0000
538 5 2 0 429.0000 362.2000 50.0000
539 5 1 0 429.0000 368.1000 50.0000
540 5 3 0 434.9000 368.1000 50.0000
541 5 2 0 440.8000 368.1000 50.0000
542 5 1 0 440.8000 362.2000 50.0000
543 5 3 0 440.8000 356.3000 50.0000
544 5 2 0 440.8000 350.4000 50.0000
545 5 1 0 440.8000 344.5000 50.0000
546 5 3 0 440.8000 338.6000 50.0000
547 5 2 0 440.8000 332.7000 50.0000
548 5 1 0 440.8000 326.8000 50.0000
549 5 3 0 440.8000 320.9000 50.0000
550 5 2 0 440.8000 315.0000 50.0000
551 5 1 0 440.8000 309.1000 50.0000
552 5 3 0 440.8000 303.2000 50.0000
553 5 2 0 440.8000 297.3000 50.0000
554 5 1 0 440.8000 291.4000 50.0000
555 5 3 0 440.8000 285.5000 50.0000
556 5 2 0 440.8000 279.6000 50.0000
557 5 1 0 440.8000 273.7000 50.0000
558 5 3 0 440.8000 267.8000 50.0000
559 5 2 0 440.8000 261.9000 50.0000
560 5 1 0 440.8000 256.0000 50.0000
561 5 3 0 440.8000 250.1000 50.0000
562 5 2 0 440.8000 244.2000 50.0000
563 5 1 0 440.8000 238.3000 50.0000
564 5 3 0 440.8000 232.4000 50.0000
565 5 2 0 440.8000 226.5000 50.0000
566 5 1 0 440.8000 220.6000 50.0000
567 5 3 0 440.8000 214.7000 50.0000
568 5 2 0 440.8000 208.8000 50.0000
569 5 1 0 440.8000 202.9000 50.0000
570 5 3 0 440.8000 197.0000 50.0000
571 5 2 0 440.8000 191.1000 50.0000
572 5 1 0 440.8000 185.2000 50.0000
573 5 3 0 440.8000 179.3000 50.0000
574 5 2 0 440.8000 173.4000 50.0000
575 5 1 0 440.8000 167.5000 50.0000
576 5 3 0 440.8000 161.6000 50.0000
577 5 2 0 440.8000 155.7000 50.0000
578 5 1 0 440.8000 149.8000 50.0000
579 5 3 0 440.8000 143.9000 50.0000
580 5 2 0 440.8000 138.0000 50.0000
581 5 1 0 440.8000 132.1000 50.0000
582 5 3 0 440.8000 126.2000 50.0000
583 5 2 0 440.8000 120.3000 50.0000
584 5 1 0 440.8000 114.4000 50.0000
585 5 3 0 440.8000 108.5000 50.0000
586 5 2 0 440.8000 102.6000 50.0000
587 5 1 0 440.8000 96.7000 50.0000
588 5 3 0 440.8000 90.8000 50.0000
589 5 2 0 440.8000 84.9000 50.0000
590 5 1 0 440.8000 79.0000 50.0000
591 5 3 0 440.8000 73.1000 50.0000
592 5 2 0 440.8000 67.2000 50.0000
593 5 1 0 440.8000 61.3000 50.0000
594 5 3 0 440.8000 55.4000 50.0000
595 5 2 0 440.8000 49.5000 50.0000
596 5 1 0 440.8000 43.6000 50.0000
597 5 3 0 440.8000 37.7000 50.0000
598 5 2 0 440.8000 31.8000 50.0000
599 5 1 0 440.8000 25.9000 50.0000
600 5 3 0 440.8000 20.0000 50.0000
601 6 2 0 530.0000 25.9000 50.0000
602 6 1 0 530.0000 31.8000 50.0000
603 6 3 0 530.0000 37.7000 50.0000
604 6 2 0 530.0000 43.6000 50.0000
605 6 1 0 530.0000 49.5000 50.0000
606 6 3 0 530.0000 55.4000 50.0000
607 6 2 0 530.0000 61.3000 50.0000
608 6 1 0 530.0000 67.2000 50.0000
609 6 3 0 530.0000 73.1000 50.0000
610 6 2 0 530.0000 79.0000 50.0000
611 6 1 0 530.0000 84.9000 50.0000
612 6 3 0 530.0000 90.8000 50.0000
613 6 2 0 530.0000 96.7000 50.0000
614 6 1 0 530.0000 102.6000 50.0000
615 6 3 0 530.0000 108.5000 50.0000
616 6 2 0 530.0000 114.4000 50.0000
617 6 1 0 530.0000 120.3000 50.0000
618 6 3 0 530.0000 126.2000 50.0000
619 6 2 0 530.0000 132.1000 50.0000
620 6 1 0 530.0000 138.0000 50.0000
621 6 3 0 530.0000 143.9000 50.0000
622 6 2 0 530.0000 149.8000 50.0000
623 6 1 0 530.0000 155.7000 50.0000
624 6 3 0 530.0000 161.6000 50.0000
625 6 2 0 530.0000 167.5000 50.0000
626 6 1 0 530.0000 173.4000 50.0000
627 6 3 0 530.0000 179.3000 50.0000
628 6 2 0 530.0000 185.2000 50.0000
629 6 1 0 530.0000 191.1000 50.0000
630 6 3 0 530.0000 197.0000 50.0000
631 6 2 0 530.0000 202.9000 50.0000
632 6 1 0 530.0000 208.8000 50.0000
633 6 3 0 530.0000 214.7000 50.0000
634 6 2 0 530.0000 220.6000 50.0000
635 6 1 0 530.0000 226.5000 50.0000
636 6 3 0 530.0000 232.4000 50.0000
637 6 2 0 530.0000 238.3000 50.0000
638 6 1 0 530.0000 244.2000 50.0000
639 6 3 0 530.0000 250.1000 50.0000
640 6 2 0 530.0000 256.0000 50.0000
641 6 1 0 530.0000 261.9000 50.0000
642 6 3 0 530.0000 267.8000 50.0000
643 6 2 0 530.0000 273.7000 50.0000
644 6 1 0 530.0000 279.6000 50.0000
645 6 3 0 530.0000 285.5000 50.0000
646 6 2 0 530.0000 291.4000 50.0000
647 6 1 0 530.0000 297.3000 50.0000
648 6 3 0 530.0000 303.2000 50.0000
649 6 2 0 530.0000 309.1000 50.0000
650 6 1 0 530.0000 315.0000 50.0000
651 6 3 0 530.0000 320.9000 50.0000
652 6 2 0 530.0000 326.8000 50.0000
653 6 1 0 530.0000 332.7000 50.0000
654 6 3 0 530.0000 338.6000 50.0000
655 6 2 0 530.0000 344.5000 50.0000
656 6 1 0 530.0000 350.4000 50.0000
657 6 3 0 530.0000 356.3000 50.0000
658 6 2 0 530.0000 362.2000 50.0000
659 6 1 0 530.0000 368.1000 50.0000
660 6 3 0 535.9000 368.1000 50.0000
661 6 2 0 541.8000 368.1000 50.0000
662 6 1 0 541.8000 362.2000 50.0000
663 6 3 0 541.8000 356.3000 50.0000
664 6 2 0 541.8000 350.4000 50.0000
665 6 1 0 541.8000 344.5000 50.0000
666 6 3 0 541.8000 338.6000 50.0000
667 6 2 0 541.8000 332.7000 50.0000
668 6 1 0 541.8000 326.8000 50.0000
669 6 3 0 541.8000 320.9000 50.0000
670 6 2 0 541.8000 315.0000 50.0000
671 6 1 0 541.8000 309.1000 50.0000
672 6 3 0 541.8000 303.2000 50.0000
673 6 2 0 541.8000 297.3000 50.0000
674 6 1 0 541.8000 291.4000 50.0000
675 6 3 0 541.8000 285.5000 50.0000
676 6 2 0 541.8000 279.6000 50.0000
677 6 1 0 541.8000 273.7000 50.0000
678 6 3 0 541.8000 267.8000 50.0000
679 6 2 0 541.8000 261.9000 50.0000
680 6 1 0 541.8000 256.0000 50.0000
681 6 3 0 541.8000 250.1000 50.0000
682 6 2 0 541.8000 244.2000 50.0000
683 6 1 0 541.8000 238.3000 50.0000
684 6 3 0 541.8000 232.4000 50.0000
685 6 2 0 541.8000 226.5000 50.0000
686 6 1 0 541.8000 220.6000 50.0000
687 6 3 0 541.8000 214.7000 50.0000
688 6 2 0 541.8000 208.8000 50.0000
689 6 1 0 541.8000 202.9000 50.0000
690 6 3 0 541.8000 197.0000 50.0000
691 6 2 0 541.8000 191.1000 50.0000
692 6 1 0 541.8000 185.2000 50.0000
693 6 3 0 541.8000 179.3000 50.0000
694 6 2 0 541.8000 173.4000 50.0000
695 6 1 0 541.8000 167.5000 50.0000
696 6 3 0 541.8000 161.6000 50.0000
697 6 2 0 541.8000 155.7000 50.0000
698 6 1 0 541.8000 149.8000 50.0000
699 6 3 0 541.8000 143.9000 50.0000
700 6 2 0 541.8000 138.0000 50.0000
701 6 1 0 541.8000 132.1000 50.0000
702 6 3 0 541.8000 126.2000 50.0000
703 6 2 0 541.8000 120.3000 50.0000
704 6 1 0 541.8000 114.4000 50.0000
705 6 3 0 541.8000 108.5000 50.0000
706 6 2 0 541.8000 102.6000 50.0000
707 6 1 0 541.8000 96.7000 50.0000
708 6 3 0 541.8000 90.8000 50.0000
709 6 2 0 541.8000 84.9000 50.0000
710 6 1 0 541.8000 79.0000 50.0000
711 6 3 0 541.8000 73.1000 50.0000
712 6 2 0 541.8000 67.2000 50.0000
713 6 1 0 541.8000 61.3000 50.0000
714 6 3 0 541.8000 55.4000 50.0000
715 6 2 0 541.8000 49.5000 50.0000
716 6 1 0 541.8000 43.6000 50.0000
717 6 3 0 541.8000 37.7000 50.0000
718 6 2 0 541.8000 31.8000 50.0000
719 6 1 0 541.8000 25.9000 50.0000
720 6 3 0 541.8000 20.0000 50.0000
721 7 2 0 631.0000 25.9000 50.0000
722 7 1 0 631.0000 31.8000 50.0000
723 7 3 0 631.0000 37.7000 50.0000
724 7 2 0 631.0000 43.6000 50.0000
725 7 1 0 631.0000 49.5000 50.0000
726 7 3 0 631.0000 55.4000 50.0000
727 7 2 0 631.0000 61.3000 50.0000
728 7 1 0 631.0000 67.2000 50.0000
729 7 3 0 631.0000 73.1000 50.0000
730 7 2 0 631.0000 79.0000 50.0000
731 7 1 0 631.0000 84.9000 50.0000
732 7 3 0 631.0000 90.8000 50.0000
733 7 2 0 631.0000 96.7000 50.0000
734 7 1 0 631.0000 102.6000 50.0000
735 7 3 0 631.0000 108.5000 50.0000
736 7 2 0 631.0000 114.4000 50.0000
737 7 1 0 631.0000 120.3000 50.0000
738 7 3 0 631.0000 126.2000 50.0000
739 7 2 0 631.0000 132.1000 50.0000
740 7 1 0 631.0000 138.0000 50.0000
741 7 3 0 631.0000 143.9000 50.0000
742 7 2 0 631.0000 149.8000 50.0000
743 7 1 0 631.0000 155.7000 50.0000
744 7 3 0 631.0000 161.6000 50.0000
745 7 2 0 631.0000 167.5000 50.0000
746 7 1 0 631.0000 173.4000 50.0000
747 7 3 0 631.0000 179.3000 50.0000
748 7 2 0 631.0000 185.2000 50.0000
749 7 1 0 631.0000 191.1000 50.0000
750 7 3 0 631.0000 197.0000 50.0000
751 7 2 0 631.0000 202.9000 50.0000
752 7 1 0 631.0000 208.8000 50.0000
753 7 3 0 631.0000 214.7000 50.0000
754 7 2 0 631.0000 220.6000 50.0000
755 7 1 0 631.0000 226.5000 50.0000
756 7 3 0 631.0000 232.4000 50.0000
757 7 2 0 631.0000 238.3000 50.0000
758 7 1 0 631.0000 244.2000 50.0000
759 7 3 0 631.0000 250.1000 50.0000
760 7 2 0 631.0000 256.0000 50.0000
761 7 1 0 631.0000 261.9000 50.0000
762 7 3 0 631.0000 267.8000 50.0000
763 7 2 0 631.0000 273.7000 50.0000
764 7 1 0 631.0000 279.6000 50.0000
765 7 3 0 631.0000 285.5000 50.0000
766 7 2 0 631.0000 291.4000 50.0000
767 7 1 0 631.0000 297.3000 50.0000
768 7 3 0 631.0000 303.2000 50.0000
769 7 2 0 631.0000 309.1000 50.0000
770 7 1 0 631.0000 315.0000 50.0000
771 7 3 0 631.0000 320.9000 50.0000
772 7 2 0 631.0000 326.8000 50.0000
773 7 1 0 631.0000 332.7000 50.0000
774 7 3 0 631.0000 338.6000 50.0000
775 7 2 0 631.0000 344.5000 50.0000
776 7 1 0 631.0000 350.4000 50.0000
777 7 3 0 631.0000 356.3000 50.0000
778 7 2 0 631.0000 362.2000 50.0000
779 7 1 0 631.0000 368.1000 50.0000
780 7 3 0 636.9000 368.1000 50.0000
781 7 2 0 642.8000 368.1000 50.0000
782 7 1 0 642.8000 362.2000 50.0000
783 7 3 0 642.8000 356.3000 50.0000
784 7 2 0 642.8000 350.4000 50.0000
785 7 1 0 642.8000 344.5000 50.0000
786 7 3 0 642.8000 338.6000 50.0000
787 7 2 0 642.8000 332.7000 50.0000
788 7 1 0 642.8000 326.8000 50.0000
789 7 3 0 642.8000 320.9000 50.0000
790 7 2 0 642.8000 315.0000 50.0000
791 7 1 0 642.8000 309.1000 50.0000
792 7 3 0 642.8000 303.2000 50.0000
793 7 2 0 642.8000 297.3000 50.0000
794 7 1 0 642.8000 291.4000 50.0000
795 7 3 0 642.8000 285.5000 50.0000
796 7 2 0 642.8000 279.6000 50.0000
797 7 1 0 642.8000 273.7000 50.0000
798 7 3 0 642.8000 267.8000 50.0000
799 7 2 0 642.8000 261.9000 50.0000
800 7 1 0 642.8000 256.0000 50.0000
801 7 3 0 642.8000 250.1000 50.0000
802 7 2 0 642.8000 244.2000 50.0000
803 7 1 0 642.8000 238.3000 50.0000
804 7 3 0 642.8000 232.4000 50.0000
805 7 2 0 642.8000 226.5000 50.0000
806 7 1 0 642.8000 220.6000 50.0000
807 7 3 0 642.8000 214.7000 50.0000
808 7 2 0 642.8000 208.8000 50.0000
809 7 1 0 642.8000 202.9000 50.0000
810 7 3 0 642.8000 197.0000 50.0000
811 7 2 0 642.8000 191.1000 50.0000
812 7 1 0 642.8000 185.2000 50.0000
813 7 3 0 642.8000 179.3000 50.0000
814 7 2 0 642.8000 173.4000 50.0000
815 7 1 0 642.8000 167.5000 50.0000
816 7 3 0 642.8000 161.6000 50.0000
817 7 2 0 642.8000 155.7000 50.0000
818 7 1 0 642.8000 149.8000 50.0000
819 7 3 0 642.8000 143.9000 50.0000
820 7 2 0 642.8000 138.0000 50.0000
821 7 1 0 642.8000 132.1000 50.0000
822 7 3 0 642.8000 126.2000 50.0000
823 7 2 0 642.8000 120.3000 50.0000
824 7 1 0 642.8000 114.4000 50.0000
825 7 3 0 642.8000 108.5000 50.0000
826 7 2 0 642.8000 102.6000 50.0000
827 7 1 0 642.8000 96.7000 50.0000
828 7 3 0 642.8000 90.8000 50.0000
829 7 2 0 642.8000 84.9000 50.0000
830 7 1 0 642.8000 79.0000 50.0000
831 7 3 0 642.8000 73.1000 50.0000
832 7 2 0 642.8000 67.2000 50.0000
833 7 1 0 642.8000 61.3000 50.0000
834 7 3 0 642.8000 55.4000 50.0000
835 7 2 0 642.8000 49.5000 50.0000
836 7 1 0 642.8000 43.6000 50.0000
837 7 3 0 642.8000 37.7000 50.0000