LAMMPS data file for single RNA: AGGCAGCAGCCAAAAGGCAGCAGCCA

26 atoms
25 bonds
24 angles

4 atom types
1 bond types
1 angle types

-500.600000    500.600000  xlo xhi
-500.600000    500.600000  ylo yhi
-500.600000    500.600000  zlo zhi

Masses

1 329.20
2 305.20
3 345.20
4 306.20

Atoms

1 1 1 0.000000 -64.900000 0.000000 0.000000
2 1 3 0.000000 -59.000000 0.000000 0.000000
3 1 3 0.000000 -53.100000 0.000000 0.000000
4 1 2 0.000000 -47.200000 0.000000 0.000000
5 1 1 0.000000 -41.300000 0.000000 0.000000
6 1 3 0.000000 -35.400000 0.000000 0.000000
7 1 2 0.000000 -29.500000 0.000000 0.000000
8 1 1 0.000000 -23.600000 0.000000 0.000000
9 1 3 0.000000 -17.700000 0.000000 0.000000
10 1 2 0.000000 -11.800000 0.000000 0.000000
11 1 2 0.000000 -5.900000 0.000000 0.000000
12 1 1 0.000000 0.000000 0.000000 0.000000
13 1 1 0.000000 5.900000 0.000000 0.000000
14 1 1 0.000000 11.800000 0.000000 0.000000
15 1 1 0.000000 17.700000 0.000000 0.000000
16 1 3 0.000000 23.600000 0.000000 0.000000
17 1 3 0.000000 29.500000 0.000000 0.000000
18 1 2 0.000000 35.400000 0.000000 0.000000
19 1 1 0.000000 41.300000 0.000000 0.000000
20 1 3 0.000000 47.200000 0.000000 0.000000
21 1 2 0.000000 53.100000 0.000000 0.000000
22 1 1 0.000000 59.000000 0.000000 0.000000
23 1 3 0.000000 64.900000 0.000000 0.000000
24 1 2 0.000000 70.800000 0.000000 0.000000
25 1 2 0.000000 76.700000 0.000000 0.000000
26 1 1 0.000000 82.600000 0.000000 0.000000

Bonds

1 1 1 2
2 1 2 3
3 1 3 4
4 1 4 5
5 1 5 6
6 1 6 7
7 1 7 8
8 1 8 9
9 1 9 10
10 1 10 11
11 1 11 12
12 1 12 13
13 1 13 14
14 1 14 15
15 1 15 16
16 1 16 17
17 1 17 18
18 1 18 19
19 1 19 20
20 1 20 21
21 1 21 22
22 1 22 23
23 1 23 24
24 1 24 25
25 1 25 26

Angles

1 1 1 2 3
2 1 2 3 4
3 1 3 4 5
4 1 4 5 6
5 1 5 6 7
6 1 6 7 8
7 1 7 8 9
8 1 8 9 10
9 1 9 10 11
10 1 10 11 12
11 1 11 12 13
12 1 12 13 14
13 1 13 14 15
14 1 14 15 16
15 1 15 16 17
16 1 16 17 18
17 1 17 18 19
18 1 18 19 20
19 1 19 20 21
20 1 20 21 22
21 1 21 22 23
22 1 22 23 24
23 1 23 24 25
24 1 24 25 26
